/*--------------------------------*- C++ -*----------------------------------*\
| =========                 |                                                 |
| \\      /  F ield         | OpenFOAM: The Open Source CFD Toolbox           |
|  \\    /   O peration     | Version:  2312                                  |
|   \\  /    A nd           | Website:  www.openfoam.com                      |
|    \\/     M anipulation  |                                                 |
\*---------------------------------------------------------------------------*/
FoamFile
{
    version     2.0;
    format      ascii;
    arch        "LSB;label=32;scalar=64";
    class       volScalarField;
    location    "4.1";
    object      T;
}
// * * * * * * * * * * * * * * * * * * * * * * * * * * * * * * * * * * * * * //

dimensions      [0 0 -1 0 0 0 0];

internalField   nonuniform List<scalar> 
100
(
0.480513
0.481071
0.481625
0.482173
0.482714
0.483245
0.483764
0.48427
0.484759
0.485231
0.485683
0.486113
0.48652
0.486903
0.487259
0.487587
0.487886
0.488156
0.488394
0.488599
0.488772
0.488911
0.489016
0.489086
0.489121
0.489121
0.489087
0.489017
0.488912
0.488774
0.488601
0.488396
0.488158
0.487889
0.48759
0.487262
0.486906
0.486524
0.486117
0.485687
0.485235
0.484764
0.484274
0.483769
0.48325
0.482719
0.482178
0.48163
0.481076
0.480518
0.47996
0.479403
0.478849
0.4783
0.477759
0.477228
0.476709
0.476204
0.475715
0.475243
0.474791
0.474361
0.473954
0.473572
0.473216
0.472888
0.472589
0.47232
0.472082
0.471877
0.471705
0.471566
0.471461
0.471392
0.471357
0.471357
0.471392
0.471462
0.471567
0.471706
0.471879
0.472085
0.472323
0.472592
0.472891
0.473219
0.473576
0.473958
0.474365
0.474796
0.475247
0.475719
0.476208
0.476714
0.477233
0.477764
0.478305
0.478853
0.479407
0.479965
)
;

boundaryField
{
    inlet
    {
        type            cyclic;
    }
    outlet
    {
        type            cyclic;
    }
    bottom
    {
        type            slip;
    }
    top
    {
        type            slip;
    }
    frontAndBack
    {
        type            empty;
    }
    defaultFaces
    {
        type            empty;
    }
}


// ************************************************************************* //
