/*--------------------------------*- C++ -*----------------------------------*\
| =========                 |                                                 |
| \\      /  F ield         | OpenFOAM: The Open Source CFD Toolbox           |
|  \\    /   O peration     | Version:  2312                                  |
|   \\  /    A nd           | Website:  www.openfoam.com                      |
|    \\/     M anipulation  |                                                 |
\*---------------------------------------------------------------------------*/
FoamFile
{
    version     2.0;
    format      ascii;
    arch        "LSB;label=32;scalar=64";
    class       volScalarField;
    location    "500";
    object      T;
}
// * * * * * * * * * * * * * * * * * * * * * * * * * * * * * * * * * * * * * //

dimensions      [0 0 0 1 0 0 0];

internalField   nonuniform List<scalar> 
10000
(
300.003
300.008
300.014
300.019
300.025
300.03
300.036
300.041
300.047
300.052
300.057
300.063
300.068
300.074
300.079
300.085
300.09
300.096
300.101
300.107
300.112
300.118
300.123
300.129
300.135
300.14
300.146
300.151
300.157
300.163
300.169
300.174
300.18
300.186
300.192
300.198
300.204
300.21
300.216
300.222
300.229
300.235
300.242
300.248
300.255
300.262
300.269
300.276
300.284
300.291
300.299
300.307
300.315
300.324
300.332
300.341
300.351
300.36
300.37
300.381
300.391
300.403
300.415
300.427
300.44
300.454
300.468
300.483
300.5
300.517
300.535
300.554
300.575
300.597
300.621
300.647
300.675
300.706
300.739
300.775
300.815
300.86
300.909
300.965
301.027
301.098
301.18
301.275
301.386
301.519
301.68
301.879
302.132
302.464
302.921
303.591
304.671
306.69
311.338
325
300.008
300.025
300.041
300.057
300.074
300.09
300.107
300.123
300.14
300.156
300.172
300.189
300.205
300.222
300.238
300.255
300.271
300.288
300.304
300.321
300.337
300.354
300.37
300.387
300.404
300.421
300.437
300.454
300.471
300.489
300.506
300.523
300.541
300.558
300.576
300.594
300.612
300.63
300.649
300.667
300.686
300.706
300.725
300.745
300.766
300.786
300.807
300.829
300.851
300.874
300.897
300.921
300.945
300.97
300.996
301.023
301.051
301.08
301.11
301.141
301.174
301.208
301.243
301.28
301.319
301.36
301.404
301.449
301.498
301.549
301.603
301.661
301.724
301.79
301.862
301.939
302.023
302.114
302.213
302.322
302.442
302.574
302.722
302.887
303.073
303.285
303.527
303.808
304.138
304.529
305.002
305.583
306.317
307.269
308.551
310.362
313.075
317.441
325
338.662
300.014
300.041
300.068
300.096
300.123
300.15
300.178
300.205
300.233
300.26
300.287
300.315
300.342
300.369
300.397
300.424
300.452
300.479
300.507
300.534
300.562
300.59
300.617
300.645
300.673
300.701
300.729
300.757
300.786
300.814
300.843
300.872
300.901
300.93
300.96
300.989
301.019
301.05
301.081
301.112
301.144
301.176
301.208
301.242
301.275
301.31
301.345
301.381
301.418
301.455
301.494
301.534
301.574
301.616
301.66
301.705
301.751
301.799
301.849
301.901
301.955
302.011
302.07
302.132
302.197
302.265
302.337
302.412
302.493
302.578
302.668
302.765
302.868
302.978
303.097
303.225
303.363
303.514
303.678
303.858
304.055
304.274
304.516
304.788
305.093
305.44
305.836
306.293
306.827
307.458
308.214
309.136
310.283
311.743
313.653
316.23
319.826
325
332.559
343.31
300.019
300.057
300.096
300.134
300.172
300.211
300.249
300.287
300.326
300.364
300.402
300.441
300.479
300.517
300.556
300.594
300.632
300.671
300.709
300.748
300.787
300.825
300.864
300.903
300.942
300.981
301.021
301.06
301.1
301.14
301.18
301.22
301.261
301.302
301.343
301.385
301.427
301.469
301.513
301.556
301.6
301.645
301.691
301.737
301.785
301.833
301.882
301.932
301.983
302.036
302.09
302.145
302.202
302.261
302.322
302.384
302.449
302.516
302.586
302.658
302.733
302.812
302.894
302.98
303.071
303.166
303.266
303.371
303.483
303.601
303.727
303.861
304.004
304.158
304.322
304.5
304.692
304.9
305.127
305.375
305.648
305.949
306.282
306.655
307.073
307.545
308.083
308.702
309.42
310.261
311.261
312.464
313.936
315.767
318.086
321.079
325
330.174
336.925
345.329
300.025
300.074
300.123
300.172
300.222
300.271
300.32
300.369
300.419
300.468
300.517
300.566
300.616
300.665
300.714
300.764
300.813
300.862
300.912
300.962
301.011
301.061
301.111
301.161
301.211
301.261
301.312
301.363
301.413
301.465
301.516
301.568
301.62
301.673
301.726
301.78
301.834
301.888
301.944
302
302.057
302.114
302.173
302.232
302.293
302.355
302.418
302.482
302.548
302.616
302.685
302.756
302.829
302.904
302.982
303.062
303.145
303.231
303.32
303.412
303.509
303.609
303.715
303.825
303.94
304.061
304.189
304.324
304.466
304.617
304.778
304.948
305.131
305.326
305.535
305.761
306.004
306.268
306.555
306.869
307.212
307.591
308.01
308.476
308.997
309.585
310.251
311.011
311.888
312.907
314.104
315.524
317.23
319.302
321.847
325
328.921
333.77
339.638
346.409
300.03
300.09
300.15
300.211
300.271
300.331
300.391
300.451
300.512
300.572
300.632
300.692
300.752
300.813
300.873
300.933
300.994
301.054
301.115
301.175
301.236
301.297
301.357
301.419
301.48
301.541
301.603
301.665
301.727
301.79
301.852
301.916
301.98
302.044
302.109
302.174
302.24
302.307
302.374
302.443
302.512
302.582
302.654
302.726
302.8
302.875
302.952
303.031
303.111
303.193
303.277
303.364
303.453
303.545
303.639
303.737
303.837
303.942
304.05
304.163
304.28
304.402
304.53
304.664
304.804
304.951
305.105
305.269
305.441
305.624
305.818
306.024
306.244
306.48
306.732
307.003
307.296
307.613
307.957
308.332
308.742
309.193
309.69
310.242
310.857
311.546
312.323
313.205
314.213
315.375
316.722
318.299
320.158
322.365
325
328.153
331.913
336.347
341.449
347.079
300.036
300.107
300.178
300.249
300.32
300.391
300.462
300.533
300.605
300.676
300.747
300.818
300.889
300.96
301.032
301.103
301.174
301.246
301.317
301.389
301.46
301.532
301.604
301.676
301.748
301.821
301.894
301.967
302.04
302.114
302.188
302.263
302.338
302.414
302.491
302.568
302.646
302.724
302.804
302.885
302.966
303.049
303.133
303.219
303.306
303.395
303.485
303.578
303.672
303.769
303.868
303.97
304.075
304.182
304.293
304.408
304.526
304.649
304.776
304.909
305.046
305.19
305.339
305.496
305.66
305.832
306.013
306.204
306.406
306.619
306.846
307.086
307.343
307.616
307.91
308.225
308.564
308.931
309.328
309.76
310.231
310.748
311.316
311.944
312.641
313.419
314.29
315.273
316.386
317.656
319.112
320.792
322.737
325
327.635
330.698
334.233
338.257
342.731
347.536
300.041
300.123
300.205
300.287
300.369
300.451
300.533
300.616
300.698
300.78
300.862
300.944
301.026
301.108
301.19
301.272
301.355
301.437
301.519
301.602
301.684
301.767
301.85
301.933
302.017
302.1
302.184
302.268
302.353
302.438
302.524
302.61
302.696
302.784
302.872
302.961
303.05
303.141
303.233
303.325
303.419
303.515
303.612
303.71
303.81
303.912
304.016
304.122
304.231
304.342
304.456
304.573
304.693
304.817
304.944
305.075
305.211
305.352
305.498
305.649
305.807
305.971
306.142
306.321
306.508
306.705
306.912
307.129
307.359
307.602
307.859
308.133
308.423
308.734
309.066
309.422
309.805
310.217
310.664
311.148
311.676
312.252
312.883
313.578
314.346
315.197
316.146
317.209
318.403
319.751
321.279
323.018
325
327.263
329.842
332.77
336.064
339.717
343.683
347.868
300.047
300.14
300.233
300.326
300.419
300.512
300.605
300.698
300.791
300.884
300.977
301.07
301.163
301.256
301.349
301.442
301.535
301.628
301.722
301.815
301.909
302.002
302.096
302.19
302.285
302.379
302.474
302.57
302.666
302.762
302.859
302.956
303.054
303.153
303.252
303.353
303.454
303.556
303.66
303.765
303.871
303.979
304.088
304.199
304.312
304.427
304.545
304.665
304.787
304.912
305.041
305.173
305.308
305.447
305.591
305.739
305.891
306.05
306.214
306.384
306.561
306.745
306.937
307.137
307.347
307.568
307.799
308.042
308.299
308.57
308.857
309.161
309.485
309.83
310.198
310.592
311.015
311.471
311.962
312.494
313.071
313.7
314.386
315.138
315.966
316.879
317.89
319.013
320.266
321.666
323.236
325
326.982
329.208
331.701
334.476
337.536
340.864
344.416
348.121
300.052
300.156
300.26
300.364
300.468
300.572
300.676
300.78
300.884
300.987
301.091
301.195
301.299
301.403
301.507
301.611
301.715
301.819
301.924
302.028
302.133
302.237
302.342
302.447
302.553
302.658
302.764
302.871
302.978
303.085
303.193
303.301
303.411
303.521
303.632
303.744
303.857
303.971
304.086
304.203
304.321
304.441
304.563
304.687
304.813
304.941
305.071
305.204
305.341
305.48
305.622
305.769
305.919
306.074
306.233
306.397
306.566
306.741
306.923
307.111
307.307
307.511
307.723
307.945
308.176
308.419
308.674
308.942
309.224
309.522
309.837
310.171
310.525
310.902
311.304
311.733
312.194
312.688
313.22
313.794
314.415
315.09
315.823
316.624
317.5
318.462
319.521
320.688
321.98
323.412
325
326.763
328.72
330.887
333.277
335.896
338.739
341.786
344.998
348.32
300.057
300.172
300.287
300.402
300.517
300.632
300.747
300.862
300.977
301.091
301.206
301.321
301.436
301.551
301.666
301.781
301.896
302.011
302.126
302.241
302.356
302.472
302.588
302.704
302.82
302.937
303.054
303.171
303.289
303.407
303.527
303.646
303.767
303.888
304.01
304.134
304.258
304.384
304.511
304.64
304.77
304.902
305.036
305.172
305.31
305.451
305.595
305.741
305.891
306.044
306.2
306.361
306.526
306.695
306.87
307.05
307.235
307.427
307.626
307.832
308.046
308.268
308.5
308.742
308.994
309.259
309.536
309.827
310.134
310.457
310.798
311.16
311.542
311.949
312.382
312.844
313.338
313.867
314.435
315.047
315.707
316.42
317.194
318.034
318.95
319.949
321.042
322.24
323.555
325
326.588
328.334
330.249
332.344
334.625
337.093
339.739
342.542
345.471
348.481
300.063
300.189
300.315
300.441
300.566
300.692
300.818
300.944
301.07
301.195
301.321
301.447
301.573
301.698
301.824
301.95
302.076
302.202
302.328
302.454
302.58
302.706
302.833
302.96
303.087
303.215
303.343
303.471
303.6
303.729
303.859
303.99
304.122
304.255
304.388
304.523
304.659
304.796
304.935
305.075
305.217
305.361
305.507
305.655
305.806
305.959
306.116
306.275
306.438
306.604
306.774
306.949
307.128
307.312
307.501
307.697
307.898
308.106
308.321
308.544
308.776
309.016
309.267
309.528
309.8
310.085
310.384
310.698
311.027
311.374
311.74
312.127
312.536
312.97
313.432
313.923
314.447
315.007
315.607
316.251
316.944
317.691
318.497
319.369
320.315
321.342
322.458
323.675
325
326.445
328.02
329.734
331.597
333.614
335.786
338.112
340.58
343.173
345.862
348.614
300.068
300.205
300.342
300.479
300.616
300.752
300.889
301.026
301.163
301.299
301.436
301.573
301.709
301.846
301.982
302.119
302.256
302.393
302.529
302.666
302.803
302.941
303.078
303.216
303.354
303.492
303.631
303.77
303.91
304.051
304.192
304.334
304.476
304.62
304.765
304.91
305.058
305.206
305.356
305.508
305.662
305.818
305.975
306.136
306.299
306.464
306.633
306.805
306.981
307.16
307.344
307.532
307.725
307.923
308.127
308.337
308.554
308.777
309.009
309.248
309.497
309.755
310.023
310.302
310.594
310.899
311.218
311.552
311.903
312.272
312.661
313.071
313.505
313.964
314.451
314.969
315.52
316.108
316.736
317.407
318.128
318.902
319.734
320.631
321.599
322.645
323.776
325
326.325
327.76
329.311
330.987
332.791
334.727
336.795
338.989
341.298
343.707
346.192
348.725
300.074
300.222
300.369
300.517
300.665
300.813
300.96
301.108
301.256
301.403
301.551
301.698
301.846
301.993
302.141
302.288
302.436
302.583
302.731
302.879
303.027
303.175
303.323
303.472
303.62
303.77
303.919
304.069
304.22
304.371
304.523
304.676
304.83
304.984
305.14
305.297
305.455
305.615
305.776
305.94
306.105
306.272
306.442
306.614
306.789
306.966
307.147
307.332
307.52
307.713
307.909
308.111
308.317
308.529
308.747
308.972
309.203
309.441
309.688
309.943
310.208
310.482
310.768
311.065
311.374
311.698
312.035
312.389
312.76
313.15
313.56
313.992
314.448
314.93
315.44
315.982
316.556
317.168
317.82
318.515
319.258
320.054
320.907
321.822
322.805
323.862
325
326.224
327.541
328.958
330.479
332.11
333.853
335.71
337.677
339.749
341.917
344.164
346.473
348.82
300.079
300.238
300.397
300.556
300.714
300.873
301.032
301.19
301.349
301.507
301.666
301.824
301.982
302.141
302.299
302.457
302.616
302.774
302.933
303.091
303.25
303.409
303.568
303.727
303.887
304.047
304.207
304.368
304.529
304.691
304.854
305.017
305.182
305.347
305.514
305.682
305.851
306.022
306.195
306.369
306.546
306.724
306.905
307.089
307.276
307.465
307.658
307.855
308.056
308.26
308.47
308.684
308.904
309.129
309.361
309.599
309.844
310.097
310.359
310.629
310.909
311.2
311.501
311.815
312.141
312.482
312.838
313.21
313.599
314.008
314.438
314.889
315.365
315.868
316.399
316.961
317.556
318.188
318.86
319.575
320.336
321.149
322.017
322.945
323.937
325
326.137
327.355
328.658
330.051
331.538
333.121
334.802
336.581
338.454
340.415
342.455
344.56
346.715
348.902
300.085
300.255
300.424
300.594
300.764
300.933
301.103
301.272
301.442
301.611
301.781
301.95
302.119
302.288
302.457
302.627
302.796
302.965
303.134
303.303
303.473
303.642
303.812
303.982
304.152
304.323
304.494
304.665
304.838
305.01
305.184
305.358
305.533
305.709
305.887
306.066
306.246
306.428
306.611
306.797
306.984
307.174
307.366
307.561
307.76
307.961
308.166
308.374
308.587
308.804
309.025
309.252
309.485
309.723
309.968
310.219
310.478
310.745
311.021
311.305
311.6
311.905
312.222
312.552
312.894
313.251
313.623
314.012
314.419
314.845
315.293
315.762
316.256
316.777
317.326
317.906
318.519
319.168
319.857
320.587
321.364
322.189
323.067
324.003
325
326.062
327.194
328.401
329.685
331.05
332.499
334.034
335.654
337.359
339.143
341.002
342.927
344.907
346.927
348.973
300.09
300.271
300.452
300.632
300.813
300.994
301.174
301.355
301.535
301.715
301.896
302.076
302.256
302.436
302.616
302.796
302.976
303.156
303.336
303.516
303.696
303.876
304.056
304.237
304.418
304.599
304.781
304.963
305.145
305.329
305.513
305.698
305.883
306.07
306.258
306.448
306.639
306.831
307.026
307.222
307.42
307.621
307.825
308.031
308.24
308.453
308.669
308.889
309.113
309.342
309.576
309.815
310.059
310.31
310.568
310.832
311.104
311.384
311.673
311.972
312.28
312.6
312.931
313.275
313.633
314.005
314.392
314.797
315.219
315.662
316.125
316.611
317.121
317.658
318.223
318.818
319.446
320.11
320.812
321.555
322.341
323.176
324.061
325
325.997
327.055
328.178
329.369
330.63
331.965
333.376
334.861
336.422
338.055
339.758
341.524
343.345
345.212
347.113
349.035
300.096
300.288
300.479
300.671
300.862
301.054
301.246
301.437
301.628
301.819
302.011
302.202
302.393
302.583
302.774
302.965
303.156
303.346
303.537
303.728
303.918
304.109
304.3
304.491
304.683
304.875
305.067
305.259
305.453
305.646
305.841
306.036
306.233
306.43
306.629
306.829
307.03
307.233
307.438
307.645
307.854
308.066
308.28
308.497
308.718
308.941
309.169
309.4
309.635
309.876
310.121
310.372
310.628
310.891
311.16
311.437
311.722
312.015
312.316
312.628
312.95
313.283
313.628
313.985
314.356
314.743
315.144
315.563
316
316.457
316.935
317.435
317.959
318.51
319.089
319.697
320.338
321.013
321.726
322.478
323.272
324.112
325
325.939
326.932
327.982
329.093
330.265
331.503
332.806
334.176
335.614
337.117
338.683
340.31
341.99
343.717
345.484
347.278
349.091
300.101
300.304
300.507
300.709
300.912
301.115
301.317
301.519
301.722
301.924
302.126
302.328
302.529
302.731
302.933
303.134
303.336
303.537
303.738
303.94
304.141
304.342
304.544
304.746
304.948
305.15
305.352
305.556
305.759
305.963
306.168
306.374
306.581
306.789
306.998
307.208
307.42
307.633
307.849
308.066
308.286
308.508
308.733
308.961
309.192
309.426
309.664
309.906
310.153
310.404
310.661
310.923
311.191
311.465
311.746
312.035
312.331
312.636
312.95
313.274
313.608
313.954
314.311
314.681
315.066
315.465
315.88
316.312
316.762
317.231
317.722
318.235
318.772
319.334
319.924
320.544
321.195
321.879
322.6
323.358
324.157
325
325.888
326.824
327.81
328.85
329.946
331.098
332.309
333.579
334.91
336.3
337.748
339.252
340.807
342.409
344.051
345.726
347.426
349.14
300.107
300.321
300.534
300.748
300.962
301.175
301.389
301.602
301.815
302.028
302.241
302.454
302.666
302.879
303.091
303.303
303.516
303.728
303.94
304.151
304.363
304.575
304.787
305
305.212
305.425
305.638
305.851
306.065
306.28
306.495
306.711
306.928
307.146
307.365
307.586
307.808
308.032
308.257
308.485
308.715
308.947
309.183
309.421
309.662
309.907
310.156
310.408
310.666
310.928
311.195
311.468
311.747
312.032
312.324
312.624
312.932
313.248
313.574
313.909
314.255
314.612
314.982
315.364
315.76
316.171
316.598
317.042
317.503
317.985
318.487
319.011
319.558
320.131
320.731
321.359
322.018
322.71
323.436
324.198
325
325.842
326.727
327.658
328.636
329.663
330.741
331.872
333.055
334.293
335.584
336.929
338.324
339.768
341.258
342.787
344.352
345.945
347.558
349.185
300.112
300.337
300.562
300.787
301.011
301.236
301.46
301.684
301.909
302.133
302.356
302.58
302.803
303.027
303.25
303.473
303.696
303.918
304.141
304.363
304.586
304.808
305.031
305.253
305.476
305.699
305.923
306.146
306.37
306.595
306.82
307.047
307.274
307.502
307.731
307.962
308.194
308.428
308.664
308.901
309.141
309.384
309.629
309.878
310.129
310.384
310.643
310.906
311.174
311.446
311.724
312.007
312.296
312.592
312.895
313.206
313.524
313.851
314.188
314.534
314.891
315.259
315.639
316.033
316.44
316.861
317.299
317.754
318.226
318.717
319.229
319.763
320.32
320.901
321.509
322.144
322.809
323.506
324.235
325
325.801
326.641
327.522
328.445
329.412
330.425
331.484
332.592
333.748
334.953
336.206
337.506
338.851
340.24
341.668
343.131
344.624
346.142
347.678
349.225
300.118
300.354
300.59
300.825
301.061
301.297
301.532
301.767
302.002
302.237
302.472
302.706
302.941
303.175
303.409
303.642
303.876
304.109
304.342
304.575
304.808
305.041
305.274
305.507
305.74
305.973
306.207
306.441
306.675
306.91
307.145
307.382
307.619
307.857
308.096
308.337
308.579
308.822
309.068
309.316
309.566
309.818
310.073
310.331
310.593
310.857
311.126
311.399
311.677
311.959
312.247
312.54
312.84
313.146
313.459
313.779
314.108
314.445
314.792
315.148
315.515
315.894
316.284
316.687
317.104
317.536
317.984
318.448
318.929
319.43
319.95
320.492
321.057
321.645
322.259
322.9
323.569
324.268
325
325.764
326.563
327.399
328.274
329.188
330.142
331.14
332.18
333.264
334.392
335.564
336.78
338.038
339.336
340.672
342.043
343.444
344.873
346.322
347.787
349.261
300.123
300.37
300.617
300.864
301.111
301.357
301.604
301.85
302.096
302.342
302.588
302.833
303.078
303.323
303.568
303.812
304.056
304.3
304.544
304.787
305.031
305.274
305.517
305.761
306.004
306.247
306.491
306.735
306.979
307.224
307.47
307.716
307.963
308.211
308.46
308.71
308.962
309.215
309.47
309.728
309.987
310.249
310.514
310.782
311.052
311.327
311.605
311.888
312.175
312.467
312.764
313.067
313.376
313.692
314.014
314.344
314.683
315.03
315.386
315.752
316.128
316.516
316.916
317.328
317.755
318.195
318.651
319.124
319.614
320.122
320.65
321.199
321.769
322.363
322.982
323.627
324.299
325
325.731
326.493
327.289
328.12
328.986
329.889
330.831
331.811
332.831
333.892
334.992
336.132
337.312
338.529
339.782
341.069
342.387
343.731
345.099
346.486
347.886
349.294
300.129
300.387
300.645
300.903
301.161
301.419
301.676
301.933
302.19
302.447
302.704
302.96
303.216
303.472
303.727
303.982
304.237
304.491
304.746
305
305.253
305.507
305.761
306.014
306.268
306.521
306.775
307.029
307.283
307.538
307.793
308.049
308.306
308.563
308.822
309.082
309.343
309.606
309.871
310.137
310.406
310.678
310.952
311.229
311.509
311.793
312.08
312.372
312.668
312.969
313.276
313.588
313.906
314.231
314.563
314.902
315.249
315.605
315.97
316.345
316.73
317.127
317.535
317.956
318.39
318.839
319.303
319.783
320.28
320.795
321.329
321.883
322.459
323.057
323.679
324.326
325
325.7
326.43
327.19
327.981
328.804
329.661
330.553
331.48
332.443
333.443
334.479
335.552
336.661
337.806
338.984
340.195
341.436
342.703
343.995
345.308
346.636
347.977
349.325
300.135
300.404
300.673
300.942
301.211
301.48
301.748
302.017
302.285
302.553
302.82
303.087
303.354
303.62
303.887
304.152
304.418
304.683
304.948
305.212
305.476
305.74
306.004
306.268
306.531
306.795
307.059
307.322
307.586
307.851
308.116
308.381
308.648
308.915
309.183
309.452
309.723
309.995
310.269
310.545
310.823
311.103
311.386
311.672
311.962
312.254
312.551
312.852
313.157
313.467
313.782
314.103
314.43
314.763
315.103
315.451
315.807
316.171
316.544
316.927
317.321
317.725
318.141
318.57
319.012
319.468
319.938
320.425
320.928
321.448
321.987
322.546
323.126
323.727
324.351
324.999
325.673
326.372
327.099
327.855
328.64
329.455
330.302
331.181
332.093
333.039
334.018
335.03
336.076
337.155
338.266
339.407
340.578
341.775
342.996
344.239
345.5
346.775
348.061
349.353
300.14
300.421
300.701
300.981
301.261
301.541
301.821
302.1
302.379
302.658
302.937
303.215
303.492
303.77
304.047
304.323
304.599
304.875
305.15
305.425
305.699
305.973
306.247
306.521
306.795
307.068
307.342
307.616
307.889
308.164
308.438
308.713
308.989
309.265
309.543
309.821
310.101
310.382
310.665
310.95
311.237
311.526
311.818
312.113
312.411
312.712
313.018
313.327
313.64
313.959
314.282
314.611
314.947
315.288
315.637
315.992
316.356
316.728
317.109
317.5
317.901
318.312
318.735
319.171
319.619
320.081
320.558
321.05
321.558
322.083
322.626
323.189
323.771
324.374
324.999
325.648
326.32
327.017
327.74
328.49
329.268
330.075
330.911
331.777
332.673
333.601
334.559
335.548
336.568
337.617
338.696
339.802
340.934
342.09
343.268
344.464
345.677
346.903
348.138
349.379
300.146
300.437
300.729
301.021
301.312
301.603
301.894
302.184
302.474
302.764
303.054
303.343
303.631
303.919
304.207
304.494
304.781
305.067
305.352
305.638
305.923
306.207
306.491
306.775
307.059
307.342
307.625
307.909
308.192
308.476
308.76
309.044
309.329
309.615
309.901
310.189
310.478
310.768
311.06
311.353
311.649
311.947
312.247
312.551
312.857
313.167
313.48
313.797
314.119
314.446
314.777
315.114
315.457
315.806
316.162
316.526
316.897
317.276
317.664
318.062
318.469
318.888
319.317
319.759
320.213
320.68
321.162
321.659
322.171
322.7
323.247
323.811
324.395
324.999
325.625
326.272
326.942
327.636
328.354
329.098
329.868
330.665
331.489
332.342
333.222
334.131
335.069
336.035
337.029
338.05
339.098
340.17
341.266
342.383
343.52
344.674
345.842
347.022
348.21
349.403
300.151
300.454
300.757
301.06
301.363
301.665
301.967
302.268
302.57
302.871
303.171
303.471
303.77
304.069
304.368
304.665
304.963
305.259
305.556
305.851
306.146
306.441
306.735
307.029
307.322
307.616
307.909
308.202
308.495
308.788
309.081
309.375
309.669
309.963
310.259
310.555
310.853
311.152
311.452
311.755
312.059
312.365
312.674
312.985
313.3
313.617
313.939
314.264
314.593
314.927
315.267
315.611
315.961
316.318
316.681
317.051
317.429
317.815
318.21
318.614
319.028
319.452
319.887
320.334
320.793
321.265
321.751
322.252
322.768
323.3
323.848
324.415
324.999
325.604
326.228
326.873
327.54
328.23
328.942
329.679
330.441
331.227
332.04
332.878
333.743
334.634
335.551
336.494
337.463
338.457
339.474
340.515
341.576
342.657
343.755
344.869
345.996
347.132
348.276
349.425
300.157
300.471
300.786
301.1
301.413
301.727
302.04
302.353
302.666
302.978
303.289
303.6
303.91
304.22
304.529
304.838
305.145
305.453
305.759
306.065
306.37
306.675
306.979
307.283
307.586
307.889
308.192
308.495
308.797
309.099
309.402
309.705
310.008
310.311
310.616
310.921
311.227
311.534
311.843
312.154
312.466
312.78
313.097
313.417
313.739
314.064
314.393
314.726
315.063
315.404
315.751
316.102
316.459
316.823
317.192
317.569
317.954
318.346
318.747
319.156
319.576
320.005
320.445
320.897
321.36
321.837
322.326
322.83
323.348
323.882
324.432
324.999
325.584
326.188
326.81
327.453
328.116
328.8
329.507
330.236
330.988
331.764
332.564
333.388
334.237
335.11
336.007
336.928
337.873
338.84
339.829
340.838
341.867
342.913
343.975
345.051
346.139
347.235
348.338
349.446
300.163
300.489
300.814
301.14
301.465
301.79
302.114
302.438
302.762
303.085
303.407
303.729
304.051
304.371
304.691
305.01
305.329
305.646
305.963
306.28
306.595
306.91
307.224
307.538
307.851
308.164
308.476
308.788
309.099
309.411
309.723
310.034
310.346
310.659
310.972
311.285
311.6
311.916
312.233
312.551
312.871
313.194
313.518
313.845
314.175
314.508
314.844
315.184
315.528
315.876
316.229
316.587
316.951
317.321
317.697
318.08
318.47
318.868
319.274
319.689
320.113
320.547
320.992
321.448
321.915
322.394
322.887
323.393
323.913
324.449
324.999
325.566
326.151
326.752
327.372
328.011
328.67
329.349
330.049
330.77
331.512
332.277
333.064
333.874
334.707
335.562
336.439
337.338
338.259
339.201
340.162
341.143
342.14
343.154
344.182
345.222
346.273
347.332
348.397
349.465
300.169
300.506
300.843
301.18
301.516
301.852
302.188
302.524
302.859
303.193
303.527
303.859
304.192
304.523
304.854
305.184
305.513
305.841
306.168
306.495
306.82
307.145
307.47
307.793
308.116
308.438
308.76
309.081
309.402
309.723
310.043
310.364
310.684
311.005
311.327
311.649
311.972
312.295
312.62
312.947
313.275
313.605
313.937
314.271
314.608
314.948
315.291
315.638
315.988
316.343
316.703
317.067
317.437
317.813
318.195
318.583
318.979
319.382
319.793
320.212
320.641
321.079
321.528
321.987
322.457
322.939
323.434
323.942
324.463
324.999
325.55
326.117
326.699
327.299
327.916
328.551
329.204
329.877
330.569
331.282
332.014
332.768
333.542
334.337
335.154
335.991
336.849
337.727
338.625
339.542
340.477
341.43
342.398
343.38
344.376
345.382
346.399
347.422
348.451
349.483
300.174
300.523
300.872
301.22
301.568
301.916
302.263
302.61
302.956
303.301
303.646
303.99
304.334
304.676
305.017
305.358
305.698
306.036
306.374
306.711
307.047
307.382
307.716
308.049
308.381
308.713
309.044
309.375
309.705
310.034
310.364
310.693
311.022
311.352
311.681
312.011
312.342
312.674
313.007
313.341
313.676
314.013
314.353
314.694
315.038
315.385
315.735
316.088
316.445
316.806
317.171
317.542
317.917
318.299
318.686
319.079
319.48
319.887
320.303
320.727
321.159
321.601
322.053
322.515
322.988
323.472
323.968
324.477
324.999
325.535
326.085
326.65
327.231
327.828
328.441
329.071
329.719
330.385
331.07
331.773
332.496
333.237
333.999
334.78
335.58
336.4
337.239
338.096
338.972
339.865
340.775
341.701
342.64
343.594
344.558
345.533
346.517
347.507
348.502
349.5
300.18
300.541
300.901
301.261
301.62
301.98
302.338
302.696
303.054
303.411
303.767
304.122
304.476
304.83
305.182
305.533
305.883
306.233
306.581
306.928
307.274
307.619
307.963
308.306
308.648
308.989
309.329
309.669
310.008
310.346
310.684
311.022
311.36
311.698
312.035
312.373
312.712
313.052
313.392
313.733
314.076
314.42
314.766
315.115
315.465
315.818
316.175
316.534
316.897
317.264
317.635
318.011
318.392
318.778
319.17
319.569
319.973
320.385
320.805
321.232
321.668
322.113
322.567
323.032
323.507
323.992
324.49
324.999
325.521
326.057
326.606
327.169
327.747
328.34
328.949
329.574
330.216
330.875
331.551
332.245
332.957
333.687
334.436
335.202
335.987
336.79
337.61
338.447
339.302
340.172
341.057
341.957
342.87
343.795
344.731
345.676
346.629
347.587
348.551
349.517
300.186
300.558
300.93
301.302
301.673
302.044
302.414
302.784
303.153
303.521
303.888
304.255
304.62
304.984
305.347
305.709
306.07
306.43
306.789
307.146
307.502
307.857
308.211
308.563
308.915
309.265
309.615
309.963
310.311
310.659
311.005
311.352
311.698
312.043
312.389
312.735
313.081
313.428
313.776
314.124
314.474
314.825
315.178
315.533
315.89
316.249
316.611
316.977
317.346
317.718
318.095
318.475
318.861
319.252
319.649
320.051
320.46
320.876
321.299
321.729
322.168
322.616
323.072
323.538
324.015
324.501
324.999
325.509
326.03
326.564
327.112
327.672
328.247
328.837
329.441
330.061
330.696
331.347
332.015
332.7
333.401
334.119
334.855
335.607
336.376
337.162
337.964
338.782
339.615
340.463
341.325
342.201
343.088
343.986
344.894
345.811
346.734
347.663
348.596
349.532
300.192
300.576
300.96
301.343
301.726
302.109
302.491
302.872
303.252
303.632
304.01
304.388
304.765
305.14
305.514
305.887
306.258
306.629
306.998
307.365
307.731
308.096
308.46
308.822
309.183
309.543
309.901
310.259
310.616
310.972
311.327
311.681
312.035
312.389
312.743
313.096
313.45
313.804
314.159
314.514
314.871
315.229
315.588
315.949
316.312
316.677
317.045
317.416
317.79
318.168
318.549
318.935
319.325
319.721
320.121
320.528
320.94
321.359
321.785
322.218
322.66
323.109
323.567
324.035
324.512
324.999
325.497
326.006
326.527
327.059
327.604
328.162
328.733
329.318
329.918
330.531
331.16
331.804
332.463
333.137
333.828
334.534
335.256
335.994
336.748
337.517
338.302
339.101
339.914
340.741
341.58
342.432
343.295
344.167
345.049
345.938
346.834
347.735
348.64
349.546
300.198
300.594
300.989
301.385
301.78
302.174
302.568
302.961
303.353
303.744
304.134
304.523
304.91
305.297
305.682
306.066
306.448
306.829
307.208
307.586
307.962
308.337
308.71
309.082
309.452
309.821
310.189
310.555
310.921
311.285
311.649
312.011
312.373
312.735
313.096
313.457
313.818
314.179
314.541
314.903
315.266
315.63
315.996
316.363
316.732
317.103
317.476
317.852
318.231
318.614
319
319.39
319.784
320.184
320.588
320.998
321.413
321.835
322.264
322.7
323.143
323.594
324.053
324.522
324.999
325.487
325.984
326.492
327.011
327.541
328.084
328.638
329.206
329.786
330.38
330.987
331.608
332.244
332.894
333.559
334.239
334.933
335.643
336.367
337.105
337.858
338.625
339.405
340.199
341.005
341.823
342.652
343.491
344.34
345.196
346.06
346.929
347.803
348.681
349.56
300.204
300.612
301.019
301.427
301.834
302.24
302.646
303.05
303.454
303.857
304.258
304.659
305.058
305.455
305.851
306.246
306.639
307.03
307.42
307.808
308.194
308.579
308.962
309.343
309.723
310.101
310.478
310.853
311.227
311.6
311.972
312.342
312.712
313.081
313.45
313.818
314.186
314.554
314.923
315.291
315.661
316.031
316.402
316.775
317.149
317.526
317.904
318.285
318.669
319.056
319.446
319.84
320.239
320.642
321.049
321.462
321.88
322.305
322.736
323.173
323.618
324.07
324.531
324.999
325.477
325.964
326.46
326.967
327.484
328.012
328.551
329.102
329.665
330.24
330.828
331.429
332.043
332.67
333.311
333.966
334.635
335.318
336.014
336.724
337.448
338.184
338.934
339.697
340.472
341.258
342.055
342.862
343.679
344.504
345.336
346.175
347.019
347.868
348.72
349.573
300.21
300.63
301.05
301.469