/*--------------------------------*- C++ -*----------------------------------*\
| =========                 |                                                 |
| \\      /  F ield         | OpenFOAM: The Open Source CFD Toolbox           |
|  \\    /   O peration     | Version:  2312                                  |
|   \\  /    A nd           | Website:  www.openfoam.com                      |
|    \\/     M anipulation  |                                                 |
\*---------------------------------------------------------------------------*/
FoamFile
{
    version     2.0;
    format      ascii;
    arch        "LSB;label=32;scalar=64";
    class       volScalarField;
    location    "1.5";
    object      T_0;
}
// * * * * * * * * * * * * * * * * * * * * * * * * * * * * * * * * * * * * * //

dimensions      [0 0 -1 0 0 0 0];

internalField   nonuniform List<scalar> 
100
(
0.480686
0.481701
0.482708
0.483702
0.484677
0.485628
0.486551
0.487439
0.48829
0.489099
0.489861
0.490574
0.491234
0.49184
0.492387
0.492875
0.493302
0.493667
0.493969
0.494208
0.494385
0.494499
0.494551
0.494543
0.494477
0.494353
0.494174
0.493942
0.493659
0.493328
0.492952
0.492533
0.492074
0.491578
0.491047
0.490484
0.489893
0.489275
0.488633
0.487969
0.487287
0.486587
0.485873
0.485147
0.484409
0.483663
0.482909
0.48215
0.481387
0.480622
0.479856
0.479091
0.478328
0.477569
0.476815
0.476069
0.475332
0.474605
0.473891
0.473192
0.472509
0.471846
0.471204
0.470586
0.469994
0.469431
0.468901
0.468404
0.467945
0.467526
0.46715
0.466819
0.466537
0.466305
0.466126
0.466002
0.465935
0.465927
0.46598
0.466094
0.46627
0.466509
0.466812
0.467176
0.467603
0.468091
0.468639
0.469244
0.469904
0.470617
0.47138
0.472188
0.473039
0.473928
0.47485
0.475801
0.476776
0.47777
0.478777
0.479793
)
;

boundaryField
{
    inlet
    {
        type            cyclic;
    }
    outlet
    {
        type            cyclic;
    }
    bottom
    {
        type            slip;
    }
    top
    {
        type            slip;
    }
    frontAndBack
    {
        type            empty;
    }
    defaultFaces
    {
        type            empty;
    }
}


// ************************************************************************* //
